TITLE = Unstructured grid data
VARIABLES = "x0" "x1" "rho" "T" "Qr" "Qnr" "Qtrl" "mc" 
ZONE   T= "ZONE0 Quad", N=600, E=299, ZONETYPE=FEQUADRILATERAL, DATAPACKING=BLOCK, STRANDID=1, SOLUTIONTIME=0.00000000000000e+00, VARLOCATION=( [1-2]=NODAL,[3-8]=CELLCENTERED)
0.0
500000000.0
0.0
500000000.0
0.0
500000000.0
0.0
500000000.0
0.0
500000000.0
0.0
500000000.0
0.0
500000000.0
0.0
500000000.0
0.0
500000000.0
0.0
500000000.0
0.0
500000000.0
0.0
500000000.0
0.0
500000000.0
0.0
500000000.0
0.0
500000000.0
0.0
500000000.0
0.0
500000000.0
0.0
500000000.0
0.0
500000000.0
0.0
500000000.0
0.0
500000000.0
0.0
500000000.0
0.0
500000000.0
0.0
500000000.0
0.0
500000000.0
0.0
500000000.0
0.0
500000000.0
0.0
500000000.0
0.0
500000000.0
0.0
500000000.0
0.0
500000000.0
0.0
500000000.0
0.0
500000000.0
0.0
500000000.0
0.0
500000000.0
0.0
500000000.0
0.0
500000000.0
0.0
500000000.0
0.0
500000000.0
0.0
500000000.0
0.0
500000000.0
0.0
500000000.0
0.0
500000000.0
0.0
500000000.0
0.0
500000000.0
0.0
500000000.0
0.0
500000000.0
0.0
500000000.0
0.0
500000000.0
0.0
500000000.0
0.0
500000000.0
0.0
500000000.0
0.0
500000000.0
0.0
500000000.0
0.0
500000000.0
0.0
500000000.0
0.0
500000000.0
0.0
500000000.0
0.0
500000000.0
0.0
500000000.0
0.0
500000000.0
0.0
500000000.0
0.0
500000000.0
0.0
500000000.0
0.0
500000000.0
0.0
500000000.0
0.0
500000000.0
0.0
500000000.0
0.0
500000000.0
0.0
500000000.0
0.0
500000000.0
0.0
500000000.0
0.0
500000000.0
0.0
500000000.0
0.0
500000000.0
0.0
500000000.0
0.0
500000000.0
0.0
500000000.0
0.0
500000000.0
0.0
500000000.0
0.0
500000000.0
0.0
500000000.0
0.0
500000000.0
0.0
500000000.0
0.0
500000000.0
0.0
500000000.0
0.0
500000000.0
0.0
500000000.0
0.0
500000000.0
0.0
500000000.0
0.0
500000000.0
0.0
500000000.0
0.0
500000000.0
0.0
500000000.0
0.0
500000000.0
0.0
500000000.0
0.0
500000000.0
0.0
500000000.0
0.0
500000000.0
0.0
500000000.0
0.0
500000000.0
0.0
500000000.0
0.0
500000000.0
0.0
500000000.0
0.0
500000000.0
0.0
500000000.0
0.0
500000000.0
0.0
500000000.0
0.0
500000000.0
0.0
500000000.0
0.0
500000000.0
0.0
500000000.0
0.0
500000000.0
0.0
500000000.0
0.0
500000000.0
0.0
500000000.0
0.0
500000000.0
0.0
500000000.0
0.0
500000000.0
0.0
500000000.0
0.0
500000000.0
0.0
500000000.0
0.0
500000000.0
0.0
500000000.0
0.0
500000000.0
0.0
500000000.0
0.0
500000000.0
0.0
500000000.0
0.0
500000000.0
0.0
500000000.0
0.0
500000000.0
0.0
500000000.0
0.0
500000000.0
0.0
500000000.0
0.0
500000000.0
0.0
500000000.0
0.0
500000000.0
0.0
500000000.0
0.0
500000000.0
0.0
500000000.0
0.0
500000000.0
0.0
500000000.0
0.0
500000000.0
0.0
500000000.0
0.0
500000000.0
0.0
500000000.0
0.0
500000000.0
0.0
500000000.0
0.0
500000000.0
0.0
500000000.0
0.0
500000000.0
0.0
500000000.0
0.0
500000000.0
0.0
500000000.0
0.0
500000000.0
0.0
500000000.0
0.0
500000000.0
0.0
500000000.0
0.0
500000000.0
0.0
500000000.0
0.0
500000000.0
0.0
500000000.0
0.0
500000000.0
0.0
500000000.0
0.0
500000000.0
0.0
500000000.0
0.0
500000000.0
0.0
500000000.0
0.0
500000000.0
0.0
500000000.0
0.0
500000000.0
0.0
500000000.0
0.0
500000000.0
0.0
500000000.0
0.0
500000000.0
0.0
500000000.0
0.0
500000000.0
0.0
500000000.0
0.0
500000000.0
0.0
500000000.0
0.0
500000000.0
0.0
500000000.0
0.0
500000000.0
0.0
500000000.0
0.0
500000000.0
0.0
500000000.0
0.0
500000000.0
0.0
500000000.0
0.0
500000000.0
0.0
500000000.0
0.0
500000000.0
0.0
500000000.0
0.0
500000000.0
0.0
500000000.0
0.0
500000000.0
0.0
500000000.0
0.0
500000000.0
0.0
500000000.0
0.0
500000000.0
0.0
500000000.0
0.0
500000000.0
0.0
500000000.0
0.0
500000000.0
0.0
500000000.0
0.0
500000000.0
0.0
500000000.0
0.0
500000000.0
0.0
500000000.0
0.0
500000000.0
0.0
500000000.0
0.0
500000000.0
0.0
500000000.0
0.0
500000000.0
0.0
500000000.0
0.0
500000000.0
0.0
500000000.0
0.0
500000000.0
0.0
500000000.0
0.0
500000000.0
0.0
500000000.0
0.0
500000000.0
0.0
500000000.0
0.0
500000000.0
0.0
500000000.0
0.0
500000000.0
0.0
500000000.0
0.0
500000000.0
0.0
500000000.0
0.0
500000000.0
0.0
500000000.0
0.0
500000000.0
0.0
500000000.0
0.0
500000000.0
0.0
500000000.0
0.0
500000000.0
0.0
500000000.0
0.0
500000000.0
0.0
500000000.0
0.0
500000000.0
0.0
500000000.0
0.0
500000000.0
0.0
500000000.0
0.0
500000000.0
0.0
500000000.0
0.0
500000000.0
0.0
500000000.0
0.0
500000000.0
0.0
500000000.0
0.0
500000000.0
0.0
500000000.0
0.0
500000000.0
0.0
500000000.0
0.0
500000000.0
0.0
500000000.0
0.0
500000000.0
0.0
500000000.0
0.0
500000000.0
0.0
500000000.0
0.0
500000000.0
0.0
500000000.0
0.0
500000000.0
0.0
500000000.0
0.0
500000000.0
0.0
500000000.0
0.0
500000000.0
0.0
500000000.0
0.0
500000000.0
0.0
500000000.0
0.0
500000000.0
0.0
500000000.0
0.0
500000000.0
0.0
500000000.0
0.0
500000000.0
0.0
500000000.0
0.0
500000000.0
0.0
500000000.0
0.0
500000000.0
0.0
500000000.0
0.0
500000000.0
0.0
500000000.0
0.0
500000000.0
0.0
500000000.0
0.0
500000000.0
0.0
500000000.0
0.0
500000000.0
0.0
500000000.0
0.0
500000000.0
0.0
500000000.0
0.0
500000000.0
0.0
500000000.0
0.0
500000000.0
0.0
500000000.0
0.0
500000000.0
0.0
500000000.0
0.0
500000000.0
0.0
500000000.0
0.0
500000000.0
0.0
500000000.0
0.0
500000000.0
0.0
500000000.0
1030801466.0
1030801466.0
1025354731.0
1025354731.0
1019907997.0
1019907997.0
1014461267.0
1014461267.0
1009014547.0
1009014547.0
1003567839.0
1003567839.0
998121144.1
998121144.1
992674464.2
992674464.2
987227800.4
987227800.4
981781153.3
981781153.3
976334523.5
976334523.5
970887911.7
970887911.7
965441318.3
965441318.3
959994743.8
959994743.8
954548188.7
954548188.7
949101653.3
949101653.3
943655138.1
943655138.1
938208643.6
938208643.6
932762170.1
932762170.1
927315718.2
927315718.2
921869288.3
921869288.3
916422880.8
916422880.8
910976496.3
910976496.3
905530135.2
905530135.2
900083798.0
900083798.0
894637485.4
894637485.4
889191197.7
889191197.7
883744935.7
883744935.7
878298699.7
878298699.7
872852490.5
872852490.5
867406308.7
867406308.7
861960154.7
861960154.7
856514029.4
856514029.4
851067933.4
851067933.4
845621867.3
845621867.3
840175831.8
840175831.8
834729827.7
834729827.7
829283855.7
829283855.7
823837916.7
823837916.7
818392011.3
818392011.3
812946140.5
812946140.5
807500305.1
807500305.1
802054505.9
802054505.9
796608743.9
796608743.9
791163020.1
791163020.1
785717335.3
785717335.3
780271690.7
780271690.7
774826087.3
774826087.3
769380526.1
769380526.1
763935008.2
763935008.2
758489534.9
758489534.9
753044107.4
753044107.4
747598726.8
747598726.8
742153394.6
742153394.6
736708111.9
736708111.9
731262880.3
731262880.3
725817701.2
725817701.2
720372576.1
720372576.1
714927506.5
714927506.5
709482494.1
709482494.1
704037540.5
704037540.5
698592647.6
698592647.6
693147817.0
693147817.0
687703050.9
687703050.9
682258351.0
682258351.0
676813719.6
676813719.6
671369158.7
671369158.7
665924670.5
665924670.5
660480257.5
660480257.5
655035922.0
655035922.0
649591666.6
649591666.6
644147494.0
644147494.0
638703406.9
638703406.9
633259408.2
633259408.2
627815501.0
627815501.0
622371688.5
622371688.5
616927974.0
616927974.0
611484361.0
611484361.0
606040853.2
606040853.2
600597454.3
600597454.3
595154168.5
595154168.5
589710999.9
589710999.9
584267953.1
584267953.1
578825032.6
578825032.6
573382243.5
573382243.5
567939590.9
567939590.9
562497080.3
562497080.3
557054717.4
557054717.4
551612508.3
551612508.3
546170459.5
546170459.5
540728577.7
540728577.7
535286870.1
535286870.1
529845344.3
529845344.3
524404008.4
524404008.4
518962870.9
518962870.9
513521940.8
513521940.8
508081227.8
508081227.8
502640742.1
502640742.1
497200494.7
497200494.7
491760497.0
491760497.0
486320761.5
486320761.5
480881301.4
480881301.4
475442130.8
475442130.8
470003264.9
470003264.9
464564719.7
464564719.7
459126512.8
459126512.8
453688662.6
453688662.6
448251189.4
448251189.4
442814114.7
442814114.7
437377461.9
437377461.9
431941256.0
431941256.0
426505524.4
426505524.4
421070296.6
421070296.6
415635604.7
415635604.7
410201483.6
410201483.6
404767971.1
404767971.1
399335109.0
399335109.0
393902942.4
393902942.4
388471521.3
388471521.3
383040900.4
383040900.4
377611140.0
377611140.0
372182306.7
372182306.7
366754474.3
366754474.3
361327724.9
361327724.9
355902149.9
355902149.9
350477851.6
350477851.6
345054944.8
345054944.8
339633559.0
339633559.0
334213840.7
334213840.7
328795956.4
328795956.4
323380096.7
323380096.7
317966480.3
317966480.3
312555360.2
312555360.2
307147030.7
307147030.7
301741836.2
301741836.2
296340183.5
296340183.5
290942555.9
290942555.9
285549533.3
285549533.3
280161816.7
280161816.7
274780261.6
274780261.6
269405921.5
269405921.5
264040105.8
264040105.8
258684456.0
258684456.0
253341048.3
253341048.3
248012528.9
248012528.9
242702293.6
242702293.6
237414724.2
237414724.2
232155497.1
232155497.1
226931979.8
226931979.8
221753727.0
221753727.0
216633083.0
216633083.0
211585869.0
211585869.0
206632099.9
206632099.9
201796607.2
201796607.2
197109362.5
197109362.5
192605200.1
192605200.1
188322587.2
188322587.2
184301170.2
184301170.2
180578136.5
180578136.5
177183960.3
177183960.3
174138572.5
174138572.5
171448997.2
171448997.2
169109025.0
169109025.0
167100724.2
167100724.2
165397229.9
165397229.9
163966163.7
163966163.7
162772963.6
162772963.6
161783557.0
161783557.0
160966153.9
160966153.9
160292204.4
160292204.4
159736744.6
159736744.6
159278425.5
159278425.5
158899431.4
158899431.4
158585221.7
158585221.7
158324070.7
158324070.7
158106526.3
158106526.3
157924959.4
157924959.4
157773231.2
157773231.2
157646415.5
157646415.5
157540528.4
157540528.4
157452274.9
157452274.9
157378863.7
157378863.7
157317894.6
157317894.6
157267290.2
157267290.2
157225248.7
157225248.7
157190206.4
157190206.4
157160802.7
157160802.7
157135844.5
157135844.5
157114264.8
157114264.8
157095072.8
157095072.8
157077294.7
157077294.7
157059912.8
157059912.8
157041812.3
157041812.3
157021650.7
157021650.7
156997517.6
156997517.6
156966471.2
156966471.2
156924206.0
156924206.0
156864592.8
156864592.8
156778533.3
156778533.3
156653443.4
156653443.4
156472548.1
156472548.1
156213816.8
156213816.8
155849290.2
155849290.2
155345700.0
155345700.0
154667236.7
154667236.7
153780940.9
153780940.9
152664236.0
152664236.0
151312642.5
151312642.5
149743871.7
149743871.7
147994024.0
147994024.0
146107065.0
146107065.0
144125558.0
144125558.0
142085672.7
142085672.7
140013826.3
140013826.3
137927591.2
137927591.2
135839615.7
135839615.7
133759042.4
133759042.4
131691674.5
131691674.5
129640459.9
129640459.9
127606286.2
127606286.2
125588753.2
125588753.2
123586729.5
123586729.5
121598708.1
121598708.1
119623039.6
119623039.6
117658086.9
117658086.9
115702318.0
115702318.0
113754354.5
113754354.5
111812987.9
111812987.9
109877176.7
109877176.7
107946031.1
107946031.1
106018790.9
106018790.9
104094800.3
104094800.3
102173484.9
102173484.9
100254334.4
100254334.4
98336891.83
98336891.83
96420750.52
96420750.52
94505558.3
94505558.3
92591028.08
92591028.08
90676954.8
90676954.8
88763238.87
88763238.87
86849916.38
86849916.38
84937195.95
84937195.95
83025498.54
83025498.54
81115487.2
81115487.2
79208063.09
79208063.09
77304287.58
77304287.58
75405187.29
75405187.29
73511442.49
73511442.49
71623063.23
71623063.23
69739243.37
69739243.37
67858516.31
67858516.31
65979127.11
65979127.11
64099401.01
64099401.01
62217957.85
62217957.85
60333773.85
60333773.85
58446166.2
58446166.2
56554753.79
56554753.79
54659407.78
54659407.78
52760188.19
52760188.19
50857277.27
50857277.27
48950920.11
48950920.11
47041377.37
47041377.37
45128891.23
45128891.23
43213663.71
43213663.71
41295845.06
41295845.06
39375529.76
39375529.76
37452757.93
37452757.93
35527520.87
35527520.87
33599770.29
33599770.29
31669431.21
31669431.21
29736420.17
29736420.17
27800670.89
27800670.89
25862173.65
25862173.65
23921040.78
23921040.78
21977611.71
21977611.71
20032622.07
20032622.07
18087473.3
18087473.3
16144645.25
16144645.25
14208285.21
14208285.21
12284971.32
12284971.32
10384572.4
10384572.4
8521006.964
8521006.964
6712558.449
6712558.449
4981229.438
4981229.438
3350620.634
3350620.634
1842703.253
1842703.253
473515.0777
473515.0777
-751615.7715
-751615.7715
-1837272.555
-1837272.555
-2796171.981
-2796171.981
-3650405.908
-3650405.908
-4428792.804
-4428792.804
-5157345.702
-5157345.702
-5849541.942
-5849541.942
-6501518.954
-6501518.954
-7093614.653
-7093614.653
-7602480.968
-7602480.968
-8014370.037
-8014370.037
-8330055.97
-8330055.97
-8561798.058
-8561798.058
1.3107357805e-15
1.3144960045e-15
1.318670445e-15
1.322878666e-15
1.3271214465e-15
1.331399322e-15
1.335712792e-15
1.340062351e-15
1.3444485015e-15
1.3488717615e-15
1.3533326655e-15
1.3578317615e-15
1.3623696125e-15
1.3669467965e-15
1.37156391e-15
1.376221569e-15
1.380920412e-15
1.385661101e-15
1.390444319e-15
1.39527077e-15
1.400141177e-15
1.4050562795e-15
1.410016832e-15
1.4150236035e-15
1.420077376e-15
1.4251789465e-15
1.430329127e-15
1.435528744e-15
1.4407786435e-15
1.44607969e-15
1.4514327685e-15
1.4568387865e-15
1.4622986745e-15
1.4678133885e-15
1.473383909e-15
1.4790112425e-15
1.4846964245e-15
1.4904405175e-15
1.496244612e-15
1.50210983e-15
1.508037324e-15
1.514028277e-15
1.5200839055e-15
1.5262054605e-15
1.532394229e-15
1.5386515345e-15
1.5449787375e-15
1.5513772405e-15
1.557848487e-15
1.564393962e-15
1.5710151965e-15
1.5777137685e-15
1.5844913025e-15
1.5913494735e-15
1.598290008e-15
1.6053146865e-15
1.6124253465e-15
1.6196238815e-15
1.6269122455e-15
1.6342924565e-15
1.6417665975e-15
1.6493368195e-15
1.657005345e-15
1.6647744705e-15
1.67264657e-15
1.6806240995e-15
1.6887096e-15
1.696905701e-15
1.705215125e-15
1.713640693e-15
1.722185328e-15
1.7308520595e-15
1.73964403e-15
1.7485645005e-15
1.7576168555e-15
1.76680461e-15
1.7761314155e-15
1.7856010665e-15
1.79521751e-15
1.8049848525e-15
1.8149073675e-15
1.8249895045e-15
1.835235901e-15
1.8456513905e-15
1.856241014e-15
1.867010033e-15
1.87796394e-15
1.8891084735e-15
1.900449632e-15
1.9119936895e-15
1.9237472135e-15
1.935717081e-15
1.9479104995e-15
1.9603350275e-15
1.972998596e-15
1.9859095345e-15
1.9990765965e-15
2.012508989e-15
2.0262164015e-15
2.0402090415e-15
2.054497671e-15
2.069093645e-15
2.0840089555e-15
2.09925628e-15
2.114849033e-15
2.13080142e-15
2.1471285035e-15
2.1638462695e-15
2.1809717025e-15
2.19852287e-15
2.2165190115e-15
2.234980643e-15
2.2539296665e-15
2.2733894955e-15
2.2933851955e-15
2.313943636e-15
2.3350936645e-15
2.3568663015e-15
2.3792949575e-15
2.402415677e-15
2.426267416e-15
2.450892355e-15
2.4763362545e-15
2.5026488595e-15
2.529884362e-15
2.5581019295e-15
2.587366315e-15
2.6177485585e-15
2.6493267985e-15
2.682187219e-15
2.716425151e-15
2.7521463635e-15
2.7894685835e-15
2.82852329e-15
2.869457847e-15
2.9124380435e-15
2.957651137e-15
3.00530952e-15
3.055655151e-15
3.108964939e-15
3.1655573205e-15
3.22580036e-15
3.290121919e-15
3.3590222915e-15
3.4330897975e-15
3.5130202425e-15
3.59964128e-15
3.693942962e-15
3.797116074e-15
3.910600239e-15
4.036144019e-15
4.17587574e-15
4.332380196e-15
4.5087781605e-15
4.708799292e-15
4.9368238585e-15
5.197849022e-15
5.497302005e-15
5.840672727e-15
6.2331025405e-15
6.679123104e-15
7.18279161e-15
7.748148594e-15
8.379524655e-15
9.0816372055e-15
9.8597983835e-15
1.0720355315e-14
1.1671429205e-14
1.272384785e-14
1.389122098e-14
1.518770784e-14
1.6625683155e-14
1.821680519e-14
1.997503172e-14
2.1916358355e-14
2.405438243e-14
2.6397219085e-14
2.8950387895e-14
3.1724702305e-14
3.4741516175e-14
3.80327607e-14
4.164187391e-14
4.5629147645e-14
5.008227734e-14
5.5133258595e-14
6.0986635995e-14
6.7970183005e-14
7.6625006795e-14
8.7838065795e-14
1.02908059105e-13
1.232526483e-13
1.497931556e-13
1.823635404e-13
2.1832142735e-13
2.515612694e-13
2.76593052e-13
2.9330605525e-13
3.0383969265e-13
3.1040125025e-13
3.159920301e-13
3.228382538e-13
3.3229005775e-13
3.45602797e-13
3.644603241e-13
3.912075242e-13
4.289329509e-13
4.813769754e-13
5.525207531e-13
6.4587570755e-13
7.6442120625e-13
9.126259309e-13
1.0984152702e-12
1.330888598e-12
1.6177885275e-12
1.968018371e-12
2.394355942e-12
2.913014468e-12
3.542679521e-12
4.3043739575e-12
5.222146112e-12
6.324245801e-12
7.644355938e-12
9.222938017e-12
1.1108875385e-11
1.336134408e-11
1.6051867675e-11
1.926657894e-11
2.310878832e-11
2.7702017535e-11
3.3193667925e-11
3.9759466175e-11
4.7608804155e-11
5.6991099765e-11
6.820335537e-11
8.1599165835e-11
9.759949146e-11
1.167055062e-10
1.395137141e-10
1.6673333355e-10
1.992057144e-10
2.3792512635e-10
2.840623916e-10
3.3898728635e-10
4.042910281e-10
4.8181027385e-10
5.736534439e-10
6.822410701e-10
8.103726252e-10
9.6133079305e-10
1.1390219295e-09
1.34813839e-09
1.5943290195e-09
1.8843793345e-09
2.226415209e-09
2.6301415985e-09
3.107120244e-09
3.6710900925e-09
4.33834135e-09
5.128159594e-09
6.063355294e-09
7.17089345e-09
8.482639437e-09
1.00362335315e-08
1.1876098955e-08
1.4054582995e-08
1.663322523e-08
1.9684129855e-08
2.329139035e-08
2.755248391e-08
3.257951446e-08
3.8500126825e-08
4.5457847255e-08
5.3611488e-08
6.3133189985e-08
7.420452853e-08
8.7009569175e-08
1.01722812605e-07
1.1848908345e-07
1.3739309845e-07
1.5841998485e-07
1.814117939e-07
2.0602518445e-07
2.316956589e-07
2.5762377345e-07
2.8279258185e-07
3.06010156e-07
3.2623664225e-07
3.4266618955e-07
3.543158337e-07
3.604569379e-07
3.6168165405e-07
3.5997333325e-07
3.5762508815e-07
3.5626596275e-07
3.56365147e-07
3.5746472595e-07
3.5900438465e-07
3.6055329495e-07
3.6183786855e-07
998969.8893
996900.9292
994818.83545
992727.82515
990627.7254
988518.44285
986399.8822
984271.9461
982134.5351
979987.5474
977830.87915
975664.4245
973488.0754
971301.72155
969105.2505
966898.54775
964681.49655
962453.97805
960215.87135
957967.0534
955707.39905
953436.7809
951155.0694
948862.13265
946557.8363
944242.0435
941914.6146
939575.4073
937224.2764
934861.0737
932485.6479
930097.84455
927697.50595
925284.471
922858.57525
920419.65065
917967.5255
915502.02445
913022.9683
910530.17385
908023.45395
905502.6172
902967.4679
900417.806
897853.42675
895274.1208
892679.674
890069.8671
887444.4757
884803.2702
882146.0154
879472.47045
876782.3888
874075.51775
871351.59835
868610.3652
865851.5463
863074.8626
860280.02795
857466.74885
854634.7239
851783.64385
848913.1912
846023.0397
843112.8542
840182.29035
837230.99405
834258.60125
831264.73745
828249.0173
825211.04425
822150.4099
819066.6937
815959.4624
812828.26945
809672.6545
806492.14275
803286.24435
800054.4538
796796.24925
793511.09155
790198.42365
786857.66985
783488.2347
780089.50225
776660.8351
773201.57325
769711.033
766188.5058
762633.257
759044.5246
755421.5176
751763.41465
748069.36235
744338.47345
740569.8251
736762.4568
732915.3683
729027.51715
725097.81635
721125.13165
717108.27865
713046.0197
708937.0607
704780.04735
700573.5611
696316.1152
692006.15
687642.0278
683222.02755
678744.33895
674207.05585
669608.1692
664945.5594
660216.9877
655420.0868
650552.35055
645611.1228
640593.58465
635496.7405
630317.4028
625052.1747
619697.43095
614249.2966
608703.62305
603055.96105
597301.5305
591435.18645
585451.3804
579344.1166
573106.90255
566732.69255
560213.8231
553541.93945
546707.9115
539701.73735
532512.4332
525127.90705
517534.81475
509718.39645
501662.29155
493348.32615
484756.25095
475863.45225
466644.66395
457071.67685
447113.06535
436733.96735
425895.9741
414557.21145
402672.74645
390195.8451
377080.80165
363287.5658
348788.5069
333577.9782
317685.04535
301189.25325
284233.84605
267024.3821
249807.2961
232831.62955
216312.37795
200416.16735
185262.8394
170928.61195
157449.1098
144823.33825
133020.51495
121997.36225
111725.48805
102199.324695
93413.14
85340.43824
77940.882145
71178.792585
65025.869375
59448.446675
54396.0793
49806.09535
45616.449535
41771.370915
38220.249855
34915.27866
31810.251035
28860.48892
26024.43321
23269.721765
20588.112035
18019.82245
15663.2575
13621.68477
11934.498785
10604.47738
9646.021098
9030.0903395
8653.475692
8432.7905555
8311.923036
8225.763118
8134.406686
8023.5554805
7888.756177
7727.397031
7538.5487445
7325.6675975
7098.046668
6868.061255
6645.137864
6430.285594
6213.3862695
5982.824468
5746.6430345
5528.9024875
5343.267126
5187.5586475
5055.5339235
4943.083347
4848.296852
4769.9634175
4706.5931245
4656.309694
4617.0475055
4586.7109355
4563.3257645
4545.167824
4530.844149
4519.31375
4509.8542105
4501.9963935
4495.45303
4490.058484
4485.724638
4482.409595
4480.093611
4478.75912
4478.376195
4478.8977325
4480.266902
4482.4350025
4485.3869465
4489.1350515
4493.7416965
4499.3299595
4506.0605475
4514.123448
4523.6948265
4534.8811205
4547.6625805
4561.8596205
4577.1406705
4593.0683265
4609.160298
4624.9447845
4640.0056455
4654.017894
4666.7694045
4678.164223
4688.209305
4696.9926465
4704.659809
4711.392761
4717.3951775
4722.8874245
4728.1103135
4733.3341375
4738.871066
4745.0903385
4752.4342325
4761.4320435
4772.7105
4786.999211
4805.13191
4828.0385855
4856.726013
4892.2621555
4935.788065
4988.564097
5052.00179
5127.5793795
5216.6057965
5319.978336
5438.1511255
5571.346515
5720.151875
5886.740714
6072.0540295
6277.8992285
6516.125461
6801.591331
7133.0283285
7486.797348
7828.910404
8130.0436585
8377.8902865
8576.196333
8730.9435115
8848.508946
8936.237921
-839466296.841
-1678926412.25
-1683257408.16
-1687622671.49
-1692019565.11
-1696449409.76
-1700911891.56
-1705407909.36
-1709937970.37
-1714502633.69
-1719102511.33
-1723738172.62
-1728410339.5
-1733119625.23
-1737866802.56
-1742652527.64
-1747477516.92
-1752342470.4
-1757248013.39
-1762194786.63
-1767183488.06
-1772214633.45
-1777288919.38
-1782406984.34
-1787569435.27
-1792777028.02
-1798030386.59
-1803330381.54
-1808677661.88
-1814073086.43
-1819517541.37
-1825011757.29
-1830556725.89
-1836153336.48
-1841802484.05
-1847505142.7
-1853262291.68
-1859074937.11
-1864944113.43
-1870870883.08
-1876856321.3
-1882901628.37
-1889007850.72
-1895176258.1
-1901408080.48
-1907704527.1
-1914066958.78
-1920496717.99
-1926995148.11
-1933563689.8
-1940203806.27
-1946917022.52
-1953704810.82
-1960568924.06
-1967510810.26
-1974532321.61
-1981635106.68
-1988821047.04
-1996091944.87
-2003449762.74
-2010896408.17
-2018434096.03
-2026064750.39
-2033790733.43
-2041614222.61
-2049537660.12
-2057563429.53
-2065694087.5
-2073932265.9
-2082280692.35
-2090742219.21
-2099319725.11
-2108016368.5
-2116835196.72
-2125779592.97
-2134852988.74
-2144058889.27
-2153401095.45
-2162883414.27
-2172509898.46
-2182284795.67
-2192212360.99
-2202297345.38
-2212544375.14
-2222958553.74
-2233545035.45
-2244309325.92
-2255257097.18
-2266394358.07
-2277727406.16
-2289262777.74
-2301007402.55
-2312968533.52
-2325153816.76
-2337571249.76
-2350229249.22
-2363136730.48
-2376303070.06
-2389738186.19
-2403452483.04
-2417457058.23
-2431763556.23
-2446384363.93
-2461332739.86
-2476622406.85
-2492268429.26
-2508286349.88
-2524693086.95
-2541506550.35
-2558745840.89
-2576431382.93
-2594585122.93
-2613230487.04
-2632392738.4
-2652098964.58
-2672378345.07
-2693262474.39
-2714785307.1
-2736983834.48
-2759897964.48
-2783571279.65
-2808051160.85
-2833389277.95
-2859642261.43
-2886872228.01
-2915147426.67
-2944543143.47
-2975142599.98
-3007038215.08
-3040332627.53
-3075140572.76
-3111590485.74
-3149826820.07
-3190012716.48
-3232332927.06
-3276998178.55
-3324249130.23
-3374363029.63
-3427660019.05
-3484512603.54
-3545356313.49
-3610702379.34
-3681152916.05
-3757423503.16
-3840373776.53
-3931044271.19
-4030704970.39
-4140920722.89
-4263637911.69
-4401299252.08
-4557002536.09
-4734724200.97
-4939652591.38
-5178604492.61
-5460555712.59
-5797365824.6
-6204707964.69
-6704995426.14
-7333885393.76
-8135442980.08
-9159273582.78
-10467693434.7
-12139627609.5
-14274922602.6
-17003207084.6
-20507085359.5
-25042595151.7
-30945512228.8
-38614733477.5
-48416626678.2
-60427871926.2
-74011512964.5
-87483614640.0
-98380345310.0
-1.0463671331e+11
-1.06068235947e+11
-1.04850544396e+11
-1.04517213379e+11
-1.0849011911e+11
-1.19325339384e+11
-1.38862607977e+11
-1.68908037151e+11
-2.12076705943e+11
-2.72716172118e+11
-3.57918345772e+11
-4.7815219744e+11
-6.44673932858e+11
-8.53067938782e+11
-1.03956142542e+12
-1.06556790273e+12
-8.59166777834e+11
-5.40733475731e+11
-2.76174278139e+11
-1.20712669304e+11
-47138803581.8
-16580752347.0
-4700860781.44
-276575158.488
1111449059.71
1419895513.04
1450558719.58
1430255216.54
1389632442.08
1321023446.29
1214829841.17
1063577966.44
868900496.113
650603519.963
445184165.913
285293466.474
177938708.633
109758915.648
68057045.3069
45167778.6453
33554016.6506
27070845.5166
22513561.1474
18682509.5131
15275669.9597
12296511.7806
9789743.20759
7760480.5252
6176490.90615
4977349.66855
4084432.0392
3415051.24373
2896147.94133
2472999.01461
2110751.9036
1790560.00725
1503784.29199
1247060.86145
1019179.63827
819451.22808
646898.096274
499880.661695
376067.631104
272676.956737
186725.962369
114879.703375
50690.5550622
-4721.63991514
-51030.662697
-89774.4932824
-119258.190435
-138624.157643
-146136.223296
-140390.502589
-122458.538002
-96106.5632768
-65369.0710038
-32665.898968
588.526729073
32596.9974045
61258.4753479
85462.1225064
105581.839049
122702.178576
137812.201331
151608.144877
164577.284904
177055.355086
189233.689662
201134.635639
212540.687282
222883.110665
231111.61135
235614.038821
234303.681012
225013.62131
206297.721552
178533.092561
144852.129202
111059.617906
83922.9775962
68528.312288
66664.5841987
77187.7283133
96721.7762091
119176.796093
135484.744428
135813.547237
114742.440526
76269.3094161
37002.9978213
29117.7849207
77912.2268251
139992.063318
78699.8796659
-178966.96086
-393580.28326
-197969.741478
174247.344849
292501.922531
354780.883472
447107.975594
349568.641521
-294859.188696
-824077556.11
-0.0
-0.0
-0.0
-0.0
-0.0
-0.0
-0.0
-0.0
-0.0
-0.0
-0.0
-0.0
-0.0
-0.0
-0.0
-0.0
-0.0
-0.0
-0.0
-0.0
-0.0
-0.0
-0.0
-0.0
-0.0
-0.0
-0.0
-0.0
-0.0
-0.0
-0.0
-0.0
-0.0
-0.0
-0.0
-0.0
-0.0
-0.0
-0.0
-0.0
-0.0
-0.0
-0.0
-0.0
-0.0
-0.0
-0.0
-0.0
-0.0
-0.0
-0.0
-0.0
-0.0
-0.0
-0.0
-0.0
-0.0
-0.0
-0.0
-0.0
-0.0
-0.0
-0.0
-0.0
-0.0
-0.0
-0.0
-0.0
-0.0
-0.0
-0.0
-0.0
-0.0
-0.0
-0.0
-0.0
-0.0
-0.0
-0.0
-0.0
-0.0
-0.0
-0.0
-0.0
-0.0
-0.0
-0.0
-0.0
-0.0
-0.0
-0.0
-0.0
-0.0
-0.0
-0.0
-0.0
-0.0
-0.0
-0.0
-0.0
-0.0
-0.0
-0.0
-0.0
-0.0
-0.0
-0.0
-0.0
-0.0
-0.0
-0.0
-0.0
-0.0
-0.0
-0.0
-0.0
-0.0
-0.0
-0.0
-0.0
-0.0
-0.0
-0.0
-0.0
-0.0
-0.0
-0.0
-0.0
-0.0
-0.0
-0.0
-0.0
-0.0
-0.0
-0.0
-0.0
-0.0
-0.0
-0.0
-0.0
-0.0
-0.0
-0.0
-0.0
-0.0
-0.0
-0.0
-0.0
-0.0
-0.0
-0.0
-0.0
-0.0
-0.0
-0.0
-0.0
-0.0
-0.0
-0.0
-0.0
-0.0
-0.0
-0.0
-0.0
-0.0
-0.0
-0.0
-0.0
-0.0
-0.0
-0.0
-0.0
-0.0
-0.0
-0.0
-0.0
-0.0
-0.0
-0.0
-0.0
-0.0
-0.0
-0.0
-0.0
-0.0
-0.0
-0.0
-0.0
-0.0
-0.0
-0.0
-0.0
-0.0
-0.0
-0.0
-0.0
-0.0
-0.0
-0.0
-0.0
-0.0
-0.0
-0.0
-0.0
-0.0
-0.0
-0.0
-0.0
-0.0
-0.0
-0.0
-0.0
-0.0
-0.0
-0.0
-0.0
-0.0
-0.0
-0.0
-0.0
-0.0
-0.0
-0.0
-0.0
-0.0
-0.0
-0.0
-0.0
-0.0
-0.0
-0.0
-0.0
-0.0
-0.0
-0.0
-0.0
-0.0
-0.0
-0.0
-0.0
-0.0
-0.0
-0.0
-0.0
-0.0
-0.0
-0.0
-0.0
-0.0
-0.0
-0.0
-0.0
-0.0
-0.0
-0.0
-0.0
-0.0
-0.0
-0.0
-0.0
-0.0
-0.0
-0.0
-0.0
-0.0
-0.0
-0.0
-0.0
-0.0
-0.0
-0.0
-0.0
-0.0
-0.0
-0.0
-0.0
-0.0
-0.0
-0.0
-0.0
-0.0
-0.0
-0.0
-0.0
-15931635.5695
-156560155.325
-382955430.387
-560919748.573
-1946306993.29
-8246563763.36
-22547441373.3
-40003218347.6
-49069969944.5
-44017722158.2
-31637082476.4
-21509315644.1
-14854091978.5
-10100521923.4
-4133403284.99
-64614105904.4
-64829865477.1
-65065062321.2
-65301121610.4
-65538074133.5
-65775948113.1
-66014736811.6
-66254481843.5
-66495209990.0
-66736950485.3
-66979735065.5
-67223594269.2
-67468565062.3
-67714680727.3
-67961981253.4
-68210502648.0
-68460283859.0
-68711363783.8
-68963779046.7
-69217567504.1
-69472769954.0
-69729420747.8
-69987562082.5
-70247234653.7
-70508478692.6
-70771341171.5
-71035864703.6
-71302102579.5
-71570100282.3
-71839912537.4
-72111596252.0
-72385203243.4
-72660796779.5
-72938437254.2
-73218186554.8
-73500110970.2
-73784278350.6
-74070759022.4
-74359625931.8
-74650954682.5
-74944822965.8
-75241315166.4
-75540511324.6
-75842502256.1
-76147379052.6
-76455234081.6
-76766167888.6
-77080279711.6
-77397653491.5
-77718358569.2
-78042460531.9
-78370027629.8
-78701126066.6
-79035833435.0
-79374215183.9
-79716353107.6
-80062320900.6
-80412201790.4
-80766075875.3
-81124029849.2
-81486148230.5
-81852528101.7
-82223254846.8
-82598431638.5
-82978154298.0
-83362529408.2
-83751661230.0
-84145661144.3
-84544643585.2
-84948726953.3
-85358034740.4
-85772691493.7
-86192833189.5
-86618591226.7
-87050110680.3
-87487538544.9
-87931024743.0
-88380731182.8
-88836819889.4
-89299462790.8
-89768844807.0
-90245202555.8
-90728867222.5
-91220198684.0
-91719571789.4
-92227301650.9
-92743656182.0
-93268899971.7
-93803312417.8
-94347185699.9
-94900822691.8
-95464543400.8
-96038682137.6
-96623590368.6
-97219634931.1
-97827200959.0
-98446695086.2
-99078543904.1
-99723197281.3
-1.00381126035e+11
-1.01052830545e+11
-1.01738834492e+11
-1.02439693029e+11
-1.0315599809e+11
-1.03888361179e+11
-1.04637450005e+11
-1.05403952086e+11
-1.06188612201e+11
-1.06992216029e+11
-1.07815598137e+11
-1.08659647253e+11
-1.09525314205e+11
-1.10413609521e+11
-1.1132561786e+11
-1.12262496769e+11
-1.13225487053e+11
-1.14215925334e+11
-1.1523524045e+11
-1.16284980559e+11
-1.1736680618e+11
-1.18482520192e+11
-1.19634072667e+11
-1.2082357991e+11
-1.22053347529e+11
-1.2332588731e+11
-1.24643939183e+11
-1.26010503079e+11
-1.27428869097e+11
-1.2890266141e+11
-1.30435869527e+11
-1.32032913374e+11
-1.33698693011e+11
-1.35438664272e+11
-1.37258923518e+11
-1.3916629577e+11
-1.4116847459e+11
-1.43274131528e+11
-1.45493124422e+11
-1.47836667764e+11
-1.50317608907e+11
-1.52939455328e+11
-1.55661031368e+11
-1.58446219779e+11
-1.61304052925e+11
-1.64252291791e+11
-1.67313373386e+11
-1.70515811257e+11
-1.73896101948e+11
-1.77501288463e+11
-1.81416800832e+11
-1.86123711059e+11
-1.92813915768e+11
-2.03086487643e+11
-2.18884763904e+11
-2.42860244661e+11
-2.78642012804e+11
-3.31013247896e+11
-4.03172285998e+11
-4.91635144434e+11
-5.86057736007e+11
-6.7208860438e+11
-7.40031002083e+11
-7.92484343676e+11
-8.37362420293e+11
-8.79065516149e+11
-9.18367066012e+11
-9.54231040427e+11
-9.87158293469e+11
-1.02773401106e+12
-1.09724268199e+12
-1.19513239833e+12
-1.28492301046e+12
-1.33372018892e+12
-1.34784791612e+12
-1.35134176242e+12
-1.34579224347e+12
-1.31033358596e+12
-1.22951001839e+12